# Forces        
# CofR          : (0.000000000e+00 0.000000000e+00 0.000000000e+00)
# Time          forces(pressure viscous porous) moment(pressure viscous porous)
2.5e-06         	((2.273736754e-13 2.273736754e-13 2.273736754e-13) (0.000000000e+00 0.000000000e+00 0.000000000e+00) (0.000000000e+00 0.000000000e+00 0.000000000e+00)) ((2.442490654e-15 3.885780586e-16 6.522560270e-16) (0.000000000e+00 0.000000000e+00 0.000000000e+00) (0.000000000e+00 0.000000000e+00 0.000000000e+00))
5e-06           	((-1.136868377e-13 6.139089237e-12 1.250555215e-11) (0.000000000e+00 0.000000000e+00 0.000000000e+00) (0.000000000e+00 0.000000000e+00 0.000000000e+00)) ((4.968248035e-15 -4.829470157e-15 3.524958103e-15) (0.000000000e+00 0.000000000e+00 0.000000000e+00) (0.000000000e+00 0.000000000e+00 0.000000000e+00))
7.5e-06         	((-3.410605132e-13 1.818989404e-11 3.751665645e-11) (0.000000000e+00 0.000000000e+00 0.000000000e+00) (0.000000000e+00 0.000000000e+00 0.000000000e+00)) ((1.512678871e-15 1.387778781e-15 9.020562075e-17) (0.000000000e+00 0.000000000e+00 0.000000000e+00) (0.000000000e+00 0.000000000e+00 0.000000000e+00))
1e-05           	((-4.547473509e-13 3.592504072e-11 7.344169717e-11) (0.000000000e+00 0.000000000e+00 0.000000000e+00) (0.000000000e+00 0.000000000e+00 0.000000000e+00)) ((-3.011479954e-15 -1.609823386e-15 3.060052212e-15) (0.000000000e+00 0.000000000e+00 0.000000000e+00) (0.000000000e+00 0.000000000e+00 0.000000000e+00))
1.25e-05        	((-9.094947018e-13 6.116351869e-11 1.227817847e-10) (0.000000000e+00 0.000000000e+00 0.000000000e+00) (0.000000000e+00 0.000000000e+00 0.000000000e+00)) ((3.178013408e-15 -4.829470157e-15 -1.873501354e-16) (0.000000000e+00 0.000000000e+00 0.000000000e+00) (0.000000000e+00 0.000000000e+00 0.000000000e+00))
1.5e-05         	((-6.821210263e-13 9.003997548e-11 1.825810614e-10) (0.000000000e+00 0.000000000e+00 0.000000000e+00) (0.000000000e+00 0.000000000e+00 0.000000000e+00)) ((3.302913498e-15 -3.053113318e-16 2.484124018e-15) (0.000000000e+00 0.000000000e+00 0.000000000e+00) (0.000000000e+00 0.000000000e+00 0.000000000e+00))
1.75e-05        	((-1.364242053e-12 1.255102688e-10 2.548858902e-10) (0.000000000e+00 0.000000000e+00 0.000000000e+00) (0.000000000e+00 0.000000000e+00 0.000000000e+00)) ((2.053912596e-15 8.326672685e-17 6.113165529e-15) (0.000000000e+00 0.000000000e+00 0.000000000e+00) (0.000000000e+00 0.000000000e+00 0.000000000e+00))
2e-05           	((-1.477928890e-12 1.659827831e-10 3.369677870e-10) (0.000000000e+00 0.000000000e+00 0.000000000e+00) (0.000000000e+00 0.000000000e+00 0.000000000e+00)) ((-4.718447855e-16 -3.275157923e-15 3.164135620e-15) (0.000000000e+00 0.000000000e+00 0.000000000e+00) (0.000000000e+00 0.000000000e+00 0.000000000e+00))
2.25e-05        	((-2.273736754e-12 2.123670129e-10 4.295088729e-10) (0.000000000e+00 0.000000000e+00 0.000000000e+00) (0.000000000e+00 0.000000000e+00 0.000000000e+00)) ((3.941291737e-15 2.109423747e-15 2.678413047e-15) (0.000000000e+00 0.000000000e+00 0.000000000e+00) (0.000000000e+00 0.000000000e+00 0.000000000e+00))
2.5e-05         	((-2.728484105e-12 2.646629582e-10 5.320544005e-10) (0.000000000e+00 0.000000000e+00 0.000000000e+00) (0.000000000e+00 0.000000000e+00 0.000000000e+00)) ((2.525757381e-15 8.604228441e-16 3.892719480e-15) (0.000000000e+00 0.000000000e+00 0.000000000e+00) (0.000000000e+00 0.000000000e+00 0.000000000e+00))
2.75e-05        	((-3.637978807e-12 3.215063771e-10 6.466507330e-10) (0.000000000e+00 0.000000000e+00 0.000000000e+00) (0.000000000e+00 0.000000000e+00 0.000000000e+00)) ((7.008282843e-15 4.385380947e-15 3.184952302e-15) (0.000000000e+00 0.000000000e+00 0.000000000e+00) (0.000000000e+00 0.000000000e+00 0.000000000e+00))
3e-05           	((-3.979039320e-12 3.828972694e-10 7.705693861e-10) (0.000000000e+00 0.000000000e+00 0.000000000e+00) (0.000000000e+00 0.000000000e+00 0.000000000e+00)) ((7.369105326e-15 -5.828670879e-16 4.538036613e-15) (0.000000000e+00 0.000000000e+00 0.000000000e+00) (0.000000000e+00 0.000000000e+00 0.000000000e+00))
3.25e-05        	((-4.433786671e-12 4.481535143e-10 9.033556125e-10) (0.000000000e+00 0.000000000e+00 0.000000000e+00) (0.000000000e+00 0.000000000e+00 0.000000000e+00)) ((3.927413950e-15 2.636779683e-15 4.551914401e-15) (0.000000000e+00 0.000000000e+00 0.000000000e+00) (0.000000000e+00 0.000000000e+00 0.000000000e+00))
3.5e-05         	((-5.570655048e-12 5.195488484e-10 1.046828402e-09) (0.000000000e+00 0.000000000e+00 0.000000000e+00) (0.000000000e+00 0.000000000e+00 0.000000000e+00)) ((1.004751837e-14 4.773959006e-15 7.632783294e-15) (0.000000000e+00 0.000000000e+00 0.000000000e+00) (0.000000000e+00 0.000000000e+00 0.000000000e+00))
3.75e-05        	((-6.139089237e-12 5.939000403e-10 1.196895028e-09) (0.000000000e+00 0.000000000e+00 0.000000000e+00) (0.000000000e+00 0.000000000e+00 0.000000000e+00)) ((1.036670749e-14 5.939693182e-15 6.987466161e-15) (0.000000000e+00 0.000000000e+00 0.000000000e+00) (0.000000000e+00 0.000000000e+00 0.000000000e+00))
4e-05           	((-6.934897101e-12 6.762093108e-10 1.359921953e-09) (0.000000000e+00 0.000000000e+00 0.000000000e+00) (0.000000000e+00 0.000000000e+00 0.000000000e+00)) ((1.290634266e-14 8.271161533e-15 8.638922910e-15) (0.000000000e+00 0.000000000e+00 0.000000000e+00) (0.000000000e+00 0.000000000e+00 0.000000000e+00))
4.25e-05        	((-7.958078641e-12 7.576090866e-10 1.528178473e-09) (0.000000000e+00 0.000000000e+00 0.000000000e+00) (0.000000000e+00 0.000000000e+00 0.000000000e+00)) ((9.783840405e-15 8.049116929e-15 1.024180740e-14) (0.000000000e+00 0.000000000e+00 0.000000000e+00) (0.000000000e+00 0.000000000e+00 0.000000000e+00))
4.5e-05         	((-8.185452316e-12 8.487859304e-10 1.706212061e-09) (0.000000000e+00 0.000000000e+00 0.000000000e+00) (0.000000000e+00 0.000000000e+00 0.000000000e+00)) ((1.286470930e-14 7.022160631e-15 8.305856003e-15) (0.000000000e+00 0.000000000e+00 0.000000000e+00) (0.000000000e+00 0.000000000e+00 0.000000000e+00))
4.75e-05        	((-8.981260180e-12 9.383711586e-10 1.892885848e-09) (0.000000000e+00 0.000000000e+00 0.000000000e+00) (0.000000000e+00 0.000000000e+00 0.000000000e+00)) ((1.205979760e-14 9.464651285e-15 6.619704784e-15) (0.000000000e+00 0.000000000e+00 0.000000000e+00) (0.000000000e+00 0.000000000e+00 0.000000000e+00))
5e-05           	((-1.068656275e-11 1.035687092e-09 2.090700946e-09) (0.000000000e+00 0.000000000e+00 0.000000000e+00) (0.000000000e+00 0.000000000e+00 0.000000000e+00)) ((9.867107131e-15 8.881784197e-15 1.020711293e-14) (0.000000000e+00 0.000000000e+00 0.000000000e+00) (0.000000000e+00 0.000000000e+00 0.000000000e+00))
5.25e-05        	((-1.102762326e-11 1.136868377e-09 2.291699275e-09) (0.000000000e+00 0.000000000e+00 0.000000000e+00) (0.000000000e+00 0.000000000e+00 0.000000000e+00)) ((1.501576641e-14 1.121325255e-14 8.555656184e-15) (0.000000000e+00 0.000000000e+00 0.000000000e+00) (0.000000000e+00 0.000000000e+00 0.000000000e+00))
5.5e-05         	((-1.159605745e-11 1.240096026e-09 2.500883056e-09) (0.000000000e+00 0.000000000e+00 0.000000000e+00) (0.000000000e+00 0.000000000e+00 0.000000000e+00)) ((1.879052469e-14 1.013078510e-14 1.461331056e-14) (0.000000000e+00 0.000000000e+00 0.000000000e+00) (0.000000000e+00 0.000000000e+00 0.000000000e+00))
5.75e-05        	((-1.375610736e-11 1.350599632e-09 2.718934411e-09) (0.000000000e+00 0.000000000e+00 0.000000000e+00) (0.000000000e+00 0.000000000e+00 0.000000000e+00)) ((1.924849169e-14 1.298960939e-14 1.453698273e-14) (0.000000000e+00 0.000000000e+00 0.000000000e+00) (0.000000000e+00 0.000000000e+00 0.000000000e+00))
6e-05           	((-1.489297574e-11 1.460648491e-09 2.943352229e-09) (0.000000000e+00 0.000000000e+00 0.000000000e+00) (0.000000000e+00 0.000000000e+00 0.000000000e+00)) ((2.001177002e-14 1.237898672e-14 1.461331056e-14) (0.000000000e+00 0.000000000e+00 0.000000000e+00) (0.000000000e+00 0.000000000e+00 0.000000000e+00))
6.25e-05        	((-1.477928890e-11 1.574335329e-09 3.171635399e-09) (0.000000000e+00 0.000000000e+00 0.000000000e+00) (0.000000000e+00 0.000000000e+00 0.000000000e+00)) ((1.698641228e-14 1.207367539e-14 1.631333957e-14) (0.000000000e+00 0.000000000e+00 0.000000000e+00) (0.000000000e+00 0.000000000e+00 0.000000000e+00))
6.5e-05         	((-1.671196515e-11 1.692569640e-09 3.410832505e-09) (0.000000000e+00 0.000000000e+00 0.000000000e+00) (0.000000000e+00 0.000000000e+00 0.000000000e+00)) ((2.176037128e-14 1.412758799e-14 1.686151219e-14) (0.000000000e+00 0.000000000e+00 0.000000000e+00) (0.000000000e+00 0.000000000e+00 0.000000000e+00))
6.75e-05        	((-1.671196515e-11 1.813532435e-09 3.653894964e-09) (0.000000000e+00 0.000000000e+00 0.000000000e+00) (0.000000000e+00 0.000000000e+00 0.000000000e+00)) ((2.173261571e-14 1.515454429e-14 1.856848009e-14) (0.000000000e+00 0.000000000e+00 0.000000000e+00) (0.000000000e+00 0.000000000e+00 0.000000000e+00))
7e-05           	((-1.909938874e-11 1.938133209e-09 3.906052370e-09) (0.000000000e+00 0.000000000e+00 0.000000000e+00) (0.000000000e+00 0.000000000e+00 0.000000000e+00)) ((2.410571742e-14 1.451616605e-14 1.914440828e-14) (0.000000000e+00 0.000000000e+00 0.000000000e+00) (0.000000000e+00 0.000000000e+00 0.000000000e+00))
7.25e-05        	((-1.978150976e-11 2.066599336e-09 4.161847755e-09) (0.000000000e+00 0.000000000e+00 0.000000000e+00) (0.000000000e+00 0.000000000e+00 0.000000000e+00)) ((2.361999485e-14 1.740274591e-14 1.902644708e-14) (0.000000000e+00 0.000000000e+00 0.000000000e+00) (0.000000000e+00 0.000000000e+00 0.000000000e+00))
7.5e-05         	((-2.160049917e-11 2.193019100e-09 4.419916877e-09) (0.000000000e+00 0.000000000e+00 0.000000000e+00) (0.000000000e+00 0.000000000e+00 0.000000000e+00)) ((2.600697435e-14 1.659783422e-14 2.139260991e-14) (0.000000000e+00 0.000000000e+00 0.000000000e+00) (0.000000000e+00 0.000000000e+00 0.000000000e+00))
7.75e-05        	((-2.250999387e-11 2.325350579e-09 4.684125088e-09) (0.000000000e+00 0.000000000e+00 0.000000000e+00) (0.000000000e+00 0.000000000e+00 0.000000000e+00)) ((2.919886555e-14 1.826316876e-14 2.231548279e-14) (0.000000000e+00 0.000000000e+00 0.000000000e+00) (0.000000000e+00 0.000000000e+00 0.000000000e+00))
8e-05           	((-2.353317541e-11 2.461547410e-09 4.956746125e-09) (0.000000000e+00 0.000000000e+00 0.000000000e+00) (0.000000000e+00 0.000000000e+00 0.000000000e+00)) ((2.785272013e-14 1.937339178e-14 2.348815586e-14) (0.000000000e+00 0.000000000e+00 0.000000000e+00) (0.000000000e+00 0.000000000e+00 0.000000000e+00))
8.25e-05        	((-2.489741746e-11 2.596834747e-09 5.230731404e-09) (0.000000000e+00 0.000000000e+00 0.000000000e+00) (0.000000000e+00 0.000000000e+00 0.000000000e+00)) ((2.653433029e-14 2.303712776e-14 2.149669331e-14) (0.000000000e+00 0.000000000e+00 0.000000000e+00) (0.000000000e+00 0.000000000e+00 0.000000000e+00))
8.5e-05         	((-2.580691216e-11 2.734850568e-09 5.511765266e-09) (0.000000000e+00 0.000000000e+00 0.000000000e+00) (0.000000000e+00 0.000000000e+00 0.000000000e+00)) ((3.226585665e-14 2.109423747e-14 2.355754480e-14) (0.000000000e+00 0.000000000e+00 0.000000000e+00) (0.000000000e+00 0.000000000e+00 0.000000000e+00))
8.75e-05        	((-2.637534635e-11 2.879232852e-09 5.797801350e-09) (0.000000000e+00 0.000000000e+00 0.000000000e+00) (0.000000000e+00 0.000000000e+00 0.000000000e+00)) ((3.194666753e-14 2.420286194e-14 2.528532939e-14) (0.000000000e+00 0.000000000e+00 0.000000000e+00) (0.000000000e+00 0.000000000e+00 0.000000000e+00))
9e-05           	((-2.842170943e-11 3.023387762e-09 6.089294402e-09) (0.000000000e+00 0.000000000e+00 0.000000000e+00) (0.000000000e+00 0.000000000e+00 0.000000000e+00)) ((3.583244812e-14 2.770006446e-14 2.380040609e-14) (0.000000000e+00 0.000000000e+00 0.000000000e+00) (0.000000000e+00 0.000000000e+00 0.000000000e+00))
9.25e-05        	((-3.012701200e-11 3.173227014e-09 6.388518159e-09) (0.000000000e+00 0.000000000e+00 0.000000000e+00) (0.000000000e+00 0.000000000e+00 0.000000000e+00)) ((3.437528040e-14 2.522981823e-14 2.825517598e-14) (0.000000000e+00 0.000000000e+00 0.000000000e+00) (0.000000000e+00 0.000000000e+00 0.000000000e+00))
9.5e-05         	((-3.205968824e-11 3.321247277e-09 6.688878784e-09) (0.000000000e+00 0.000000000e+00 0.000000000e+00) (0.000000000e+00 0.000000000e+00 0.000000000e+00)) ((3.234912338e-14 2.492450690e-14 2.491062912e-14) (0.000000000e+00 0.000000000e+00 0.000000000e+00) (0.000000000e+00 0.000000000e+00 0.000000000e+00))
9.75e-05        	((-3.274180926e-11 3.474269761e-09 6.998789104e-09) (0.000000000e+00 0.000000000e+00 0.000000000e+00) (0.000000000e+00 0.000000000e+00 0.000000000e+00)) ((3.411160243e-14 2.700617507e-14 2.758904216e-14) (0.000000000e+00 0.000000000e+00 0.000000000e+00) (0.000000000e+00 0.000000000e+00 0.000000000e+00))
0.0001          	((-3.399236448e-11 3.617742550e-09 7.289827408e-09) (0.000000000e+00 0.000000000e+00 0.000000000e+00) (0.000000000e+00 0.000000000e+00 0.000000000e+00)) ((3.687328221e-14 2.781108677e-14 3.176625629e-14) (0.000000000e+00 0.000000000e+00 0.000000000e+00) (0.000000000e+00 0.000000000e+00 0.000000000e+00))
0.0001025       	((-3.581135388e-11 3.769400791e-09 7.590642781e-09) (0.000000000e+00 0.000000000e+00 0.000000000e+00) (0.000000000e+00 0.000000000e+00 0.000000000e+00)) ((3.427813589e-14 2.983724379e-14 2.865069293e-14) (0.000000000e+00 0.000000000e+00 0.000000000e+00) (0.000000000e+00 0.000000000e+00 0.000000000e+00))
0.000105        	((-3.740296961e-11 3.920831659e-09 7.896233001e-09) (0.000000000e+00 0.000000000e+00 0.000000000e+00) (0.000000000e+00 0.000000000e+00 0.000000000e+00)) ((3.903821710e-14 3.047562203e-14 3.214095656e-14) (0.000000000e+00 0.000000000e+00 0.000000000e+00) (0.000000000e+00 0.000000000e+00 0.000000000e+00))
0.0001075       	((-3.967670636e-11 4.074763638e-09 8.205688573e-09) (0.000000000e+00 0.000000000e+00 0.000000000e+00) (0.000000000e+00 0.000000000e+00 0.000000000e+00)) ((3.944067295e-14 3.658184866e-14 3.014255512e-14) (0.000000000e+00 0.000000000e+00 0.000000000e+00) (0.000000000e+00 0.000000000e+00 0.000000000e+00))
0.00011         	((-4.115463526e-11 4.230287232e-09 8.519691619e-09) (0.000000000e+00 0.000000000e+00 0.000000000e+00) (0.000000000e+00 0.000000000e+00 0.000000000e+00)) ((4.191091918e-14 3.458344722e-14 3.711614349e-14) (0.000000000e+00 0.000000000e+00 0.000000000e+00) (0.000000000e+00 0.000000000e+00 0.000000000e+00))
0.0001125       	((-4.251887731e-11 4.390358299e-09 8.840288501e-09) (0.000000000e+00 0.000000000e+00 0.000000000e+00) (0.000000000e+00 0.000000000e+00 0.000000000e+00)) ((4.352074257e-14 3.205768984e-14 3.434058593e-14) (0.000000000e+00 0.000000000e+00 0.000000000e+00) (0.000000000e+00 0.000000000e+00 0.000000000e+00))
0.000115        	((-4.365574569e-11 4.550201993e-09 9.165205483e-09) (0.000000000e+00 0.000000000e+00 0.000000000e+00) (0.000000000e+00 0.000000000e+00 0.000000000e+00)) ((4.403422071e-14 3.835820550e-14 3.769901058e-14) (0.000000000e+00 0.000000000e+00 0.000000000e+00) (0.000000000e+00 0.000000000e+00 0.000000000e+00))
0.0001175       	((-4.592948244e-11 4.712546797e-09 9.491259334e-09) (0.000000000e+00 0.000000000e+00 0.000000000e+00) (0.000000000e+00 0.000000000e+00 0.000000000e+00)) ((4.390932062e-14 3.830269435e-14 3.740757704e-14) (0.000000000e+00 0.000000000e+00 0.000000000e+00) (0.000000000e+00 0.000000000e+00 0.000000000e+00))
0.00012         	((-4.797584552e-11 4.878302207e-09 9.824589142e-09) (0.000000000e+00 0.000000000e+00 0.000000000e+00) (0.000000000e+00 0.000000000e+00 0.000000000e+00)) ((4.678202270e-14 3.694267114e-14 3.672756543e-14) (0.000000000e+00 0.000000000e+00 0.000000000e+00) (0.000000000e+00 0.000000000e+00 0.000000000e+00))
0.0001225       	((-5.013589544e-11 5.044284990e-09 1.015746420e-08) (0.000000000e+00 0.000000000e+00 0.000000000e+00) (0.000000000e+00 0.000000000e+00 0.000000000e+00)) ((4.914124663e-14 4.046762925e-14 3.853167785e-14) (0.000000000e+00 0.000000000e+00 0.000000000e+00) (0.000000000e+00 0.000000000e+00 0.000000000e+00))
0.000125        	((-5.138645065e-11 5.212314136e-09 1.049465936e-08) (0.000000000e+00 0.000000000e+00 0.000000000e+00) (0.000000000e+00 0.000000000e+00 0.000000000e+00)) ((5.026534744e-14 4.132805209e-14 3.724798248e-14) (0.000000000e+00 0.000000000e+00 0.000000000e+00) (0.000000000e+00 0.000000000e+00 0.000000000e+00))
0.0001275       	((-5.354650057e-11 5.379433787e-09 1.083435563e-08) (0.000000000e+00 0.000000000e+00 0.000000000e+00) (0.000000000e+00 0.000000000e+00 0.000000000e+00)) ((5.172251516e-14 4.010680676e-14 4.119621311e-14) (0.000000000e+00 0.000000000e+00 0.000000000e+00) (0.000000000e+00 0.000000000e+00 0.000000000e+00))
0.00013         	((-5.479705578e-11 5.551555660e-09 1.117655302e-08) (0.000000000e+00 0.000000000e+00 0.000000000e+00) (0.000000000e+00 0.000000000e+00 0.000000000e+00)) ((5.109801471e-14 4.188316360e-14 4.217459715e-14) (0.000000000e+00 0.000000000e+00 0.000000000e+00) (0.000000000e+00 0.000000000e+00 0.000000000e+00))
0.0001325       	((-5.741185305e-11 5.722995411e-09 1.152147888e-08) (0.000000000e+00 0.000000000e+00 0.000000000e+00) (0.000000000e+00 0.000000000e+00 0.000000000e+00)) ((5.284661597e-14 4.460321001e-14 4.082845173e-14) (0.000000000e+00 0.000000000e+00 0.000000000e+00) (0.000000000e+00 0.000000000e+00 0.000000000e+00))
0.000135        	((-5.888978194e-11 5.893070920e-09 1.186913323e-08) (0.000000000e+00 0.000000000e+00 0.000000000e+00) (0.000000000e+00 0.000000000e+00 0.000000000e+00)) ((5.372091660e-14 4.379829832e-14 3.924638392e-14) (0.000000000e+00 0.000000000e+00 0.000000000e+00) (0.000000000e+00 0.000000000e+00 0.000000000e+00))
0.0001375       	((-6.093614502e-11 6.072923497e-09 1.223065738e-08) (0.000000000e+00 0.000000000e+00 0.000000000e+00) (0.000000000e+00 0.000000000e+00 0.000000000e+00)) ((5.430378369e-14 4.893307981e-14 4.451994329e-14) (0.000000000e+00 0.000000000e+00 0.000000000e+00) (0.000000000e+00 0.000000000e+00 0.000000000e+00))
0.00014         	((-6.332356861e-11 6.235723049e-09 1.255853022e-08) (0.000000000e+00 0.000000000e+00 0.000000000e+00) (0.000000000e+00 0.000000000e+00 0.000000000e+00)) ((5.791200852e-14 5.151434834e-14 4.415912080e-14) (0.000000000e+00 0.000000000e+00 0.000000000e+00) (0.000000000e+00 0.000000000e+00 0.000000000e+00))
0.0001425       	((-6.582467904e-11 6.399432095e-09 1.289026841e-08) (0.000000000e+00 0.000000000e+00 0.000000000e+00) (0.000000000e+00 0.000000000e+00 0.000000000e+00)) ((5.921652058e-14 5.490052857e-14 5.259681579e-14) (0.000000000e+00 0.000000000e+00 0.000000000e+00) (0.000000000e+00 0.000000000e+00 0.000000000e+00))
0.000145        	((-6.889422366e-11 6.567006494e-09 1.322405296e-08) (0.000000000e+00 0.000000000e+00 0.000000000e+00) (0.000000000e+00 0.000000000e+00 0.000000000e+00)) ((6.324107904e-14 5.842548667e-14 5.191680419e-14) (0.000000000e+00 0.000000000e+00 0.000000000e+00) (0.000000000e+00 0.000000000e+00 0.000000000e+00))
0.0001475       	((-7.116796041e-11 6.732079783e-09 1.356011126e-08) (0.000000000e+00 0.000000000e+00 0.000000000e+00) (0.000000000e+00 0.000000000e+00 0.000000000e+00)) ((6.961098364e-14 5.784261958e-14 5.995204333e-14) (0.000000000e+00 0.000000000e+00 0.000000000e+00) (0.000000000e+00 0.000000000e+00 0.000000000e+00))
0.00015         	((-7.457856555e-11 6.900791050e-09 1.390071702e-08) (0.000000000e+00 0.000000000e+00 0.000000000e+00) (0.000000000e+00 0.000000000e+00 0.000000000e+00)) ((7.635558852e-14 6.536438057e-14 5.993122665e-14) (0.000000000e+00 0.000000000e+00 0.000000000e+00) (0.000000000e+00 0.000000000e+00 0.000000000e+00))
0.0001525       	((-7.730704965e-11 7.078369890e-09 1.425860319e-08) (0.000000000e+00 0.000000000e+00 0.000000000e+00) (0.000000000e+00 0.000000000e+00 0.000000000e+00)) ((7.645273303e-14 6.511458039e-14 6.648848139e-14) (0.000000000e+00 0.000000000e+00 0.000000000e+00) (0.000000000e+00 0.000000000e+00 0.000000000e+00))
0.000155        	((-8.060396794e-11 7.253220247e-09 1.461285137e-08) (0.000000000e+00 0.000000000e+00 0.000000000e+00) (0.000000000e+00 0.000000000e+00 0.000000000e+00)) ((7.949196856e-14 7.124856261e-14 6.800809915e-14) (0.000000000e+00 0.000000000e+00 0.000000000e+00) (0.000000000e+00 0.000000000e+00 0.000000000e+00))
0.0001575       	((-8.310507837e-11 7.429434845e-09 1.496823643e-08) (0.000000000e+00 0.000000000e+00 0.000000000e+00) (0.000000000e+00 0.000000000e+00 0.000000000e+00)) ((8.583411759e-14 7.566169913e-14 7.107509026e-14) (0.000000000e+00 0.000000000e+00 0.000000000e+00) (0.000000000e+00 0.000000000e+00 0.000000000e+00))
0.00016         	((-8.537881513e-11 7.606104191e-09 1.532248461e-08) (0.000000000e+00 0.000000000e+00 0.000000000e+00) (0.000000000e+00 0.000000000e+00 0.000000000e+00)) ((8.984479827e-14 7.649436640e-14 7.450984274e-14) (0.000000000e+00 0.000000000e+00 0.000000000e+00) (0.000000000e+00 0.000000000e+00 0.000000000e+00))
0.0001625       	((-8.822098607e-11 7.777543942e-09 1.567173058e-08) (0.000000000e+00 0.000000000e+00 0.000000000e+00) (0.000000000e+00 0.000000000e+00 0.000000000e+00)) ((9.267586698e-14 8.168465904e-14 7.268491364e-14) (0.000000000e+00 0.000000000e+00 0.000000000e+00) (0.000000000e+00 0.000000000e+00 0.000000000e+00))
0.000165        	((-9.072209650e-11 7.951712178e-09 1.602074917e-08) (0.000000000e+00 0.000000000e+00 0.000000000e+00) (0.000000000e+00 0.000000000e+00 0.000000000e+00)) ((9.676981438e-14 8.343326030e-14 8.165690346e-14) (0.000000000e+00 0.000000000e+00 0.000000000e+00) (0.000000000e+00 0.000000000e+00 0.000000000e+00))
0.0001675       	((-9.356426744e-11 8.126789908e-09 1.637272362e-08) (0.000000000e+00 0.000000000e+00 0.000000000e+00) (0.000000000e+00 0.000000000e+00 0.000000000e+00)) ((1.035560526e-13 8.734679646e-14 8.789496908e-14) (0.000000000e+00 0.000000000e+00 0.000000000e+00) (0.000000000e+00 0.000000000e+00 0.000000000e+00))
0.00017         	((-9.572431736e-11 8.301867638e-09 1.672628969e-08) (0.000000000e+00 0.000000000e+00 0.000000000e+00) (0.000000000e+00 0.000000000e+00 0.000000000e+00)) ((1.026956298e-13 9.262035583e-14 8.815864705e-14) (0.000000000e+00 0.000000000e+00 0.000000000e+00) (0.000000000e+00 0.000000000e+00 0.000000000e+00))
0.0001725       	((-9.936229617e-11 8.476717994e-09 1.707917363e-08) (0.000000000e+00 0.000000000e+00 0.000000000e+00) (0.000000000e+00 0.000000000e+00 0.000000000e+00)) ((1.078165335e-13 9.531264666e-14 9.292566716e-14) (0.000000000e+00 0.000000000e+00 0.000000000e+00) (0.000000000e+00 0.000000000e+00 0.000000000e+00))
0.000175        	((-1.020907803e-10 8.651113603e-09 1.743364919e-08) (0.000000000e+00 0.000000000e+00 0.000000000e+00) (0.000000000e+00 0.000000000e+00 0.000000000e+00)) ((1.099120794e-13 9.928169398e-14 9.347383978e-14) (0.000000000e+00 0.000000000e+00 0.000000000e+00) (0.000000000e+00 0.000000000e+00 0.000000000e+00))
0.0001775       	((-1.044782039e-10 8.828692444e-09 1.778471415e-08) (0.000000000e+00 0.000000000e+00 0.000000000e+00) (0.000000000e+00 0.000000000e+00 0.000000000e+00)) ((1.123268145e-13 9.814371538e-14 9.969802761e-14) (0.000000000e+00 0.000000000e+00 0.000000000e+00) (0.000000000e+00 0.000000000e+00 0.000000000e+00))
0.00018         	((-1.073203748e-10 9.001041690e-09 1.813805284e-08) (0.000000000e+00 0.000000000e+00 0.000000000e+00) (0.000000000e+00 0.000000000e+00 0.000000000e+00)) ((1.178085407e-13 1.035560526e-13 1.005168171e-13) (0.000000000e+00 0.000000000e+00 0.000000000e+00) (0.000000000e+00 0.000000000e+00 0.000000000e+00))
0.0001825       	((-1.098214852e-10 9.174527804e-09 1.848866304e-08) (0.000000000e+00 0.000000000e+00 0.000000000e+00) (0.000000000e+00 0.000000000e+00 0.000000000e+00)) ((1.214306433e-13 1.086075674e-13 1.026054242e-13) (0.000000000e+00 0.000000000e+00 0.000000000e+00) (0.000000000e+00 0.000000000e+00 0.000000000e+00))
0.000185        	((-1.114131010e-10 9.340510587e-09 1.882040124e-08) (0.000000000e+00 0.000000000e+00 0.000000000e+00) (0.000000000e+00 0.000000000e+00 0.000000000e+00)) ((1.216526879e-13 1.114941472e-13 1.044511699e-13) (0.000000000e+00 0.000000000e+00 0.000000000e+00) (0.000000000e+00 0.000000000e+00 0.000000000e+00))
0.0001875       	((-1.123225957e-10 9.503992260e-09 1.915032044e-08) (0.000000000e+00 0.000000000e+00 0.000000000e+00) (0.000000000e+00 0.000000000e+00 0.000000000e+00)) ((1.251776460e-13 1.154076834e-13 1.115843529e-13) (0.000000000e+00 0.000000000e+00 0.000000000e+00) (0.000000000e+00 0.000000000e+00 0.000000000e+00))
0.00019         	((-1.140278982e-10 9.668383427e-09 1.948251338e-08) (0.000000000e+00 0.000000000e+00 0.000000000e+00) (0.000000000e+00 0.000000000e+00 0.000000000e+00)) ((1.291050600e-13 1.173505737e-13 1.150884943e-13) (0.000000000e+00 0.000000000e+00 0.000000000e+00) (0.000000000e+00 0.000000000e+00 0.000000000e+00))
0.0001925       	((-1.160742613e-10 9.833684089e-09 1.981288733e-08) (0.000000000e+00 0.000000000e+00 0.000000000e+00) (0.000000000e+00 0.000000000e+00 0.000000000e+00)) ((1.328659405e-13 1.173783293e-13 1.174962905e-13) (0.000000000e+00 0.000000000e+00 0.000000000e+00) (0.000000000e+00 0.000000000e+00 0.000000000e+00))
0.000195        	((-1.163016350e-10 9.999894246e-09 2.014553502e-08) (0.000000000e+00 0.000000000e+00 0.000000000e+00) (0.000000000e+00 0.000000000e+00 0.000000000e+00)) ((1.360855872e-13 1.183775300e-13 1.163236174e-13) (0.000000000e+00 0.000000000e+00 0.000000000e+00) (0.000000000e+00 0.000000000e+00 0.000000000e+00))
0.0001975       	((-1.160742613e-10 1.016633178e-08 2.047818271e-08) (0.000000000e+00 0.000000000e+00 0.000000000e+00) (0.000000000e+00 0.000000000e+00 0.000000000e+00)) ((1.367378433e-13 1.202371536e-13 1.115496584e-13) (0.000000000e+00 0.000000000e+00 0.000000000e+00) (0.000000000e+00 0.000000000e+00 0.000000000e+00))
0.0002          	((-1.175521902e-10 1.033208719e-08 2.081628736e-08) (0.000000000e+00 0.000000000e+00 0.000000000e+00) (0.000000000e+00 0.000000000e+00 0.000000000e+00)) ((1.366684543e-13 1.243449788e-13 1.210628819e-13) (0.000000000e+00 0.000000000e+00 0.000000000e+00) (0.000000000e+00 0.000000000e+00 0.000000000e+00))
0.0002025       	((-1.170974429e-10 1.050011633e-08 2.114757081e-08) (0.000000000e+00 0.000000000e+00 0.000000000e+00) (0.000000000e+00 0.000000000e+00 0.000000000e+00)) ((1.376954106e-13 1.255107129e-13 1.234429226e-13) (0.000000000e+00 0.000000000e+00 0.000000000e+00) (0.000000000e+00 0.000000000e+00 0.000000000e+00))
0.000205        	((-1.174385034e-10 1.066632649e-08 2.147771738e-08) (0.000000000e+00 0.000000000e+00 0.000000000e+00) (0.000000000e+00 0.000000000e+00 0.000000000e+00)) ((1.363215096e-13 1.271760475e-13 1.245809012e-13) (0.000000000e+00 0.000000000e+00 0.000000000e+00) (0.000000000e+00 0.000000000e+00 0.000000000e+00))
0.0002075       	((-1.178932507e-10 1.086073098e-08 2.187152859e-08) (0.000000000e+00 0.000000000e+00 0.000000000e+00) (0.000000000e+00 0.000000000e+00 0.000000000e+00)) ((1.446620601e-13 1.303679387e-13 1.214098266e-13) (0.000000000e+00 0.000000000e+00 0.000000000e+00) (0.000000000e+00 0.000000000e+00 0.000000000e+00))
0.00021         	((-1.182343112e-10 1.106809577e-08 2.228739504e-08) (0.000000000e+00 0.000000000e+00 0.000000000e+00) (0.000000000e+00 0.000000000e+00 0.000000000e+00)) ((1.450090048e-13 1.325606291e-13 1.237482339e-13) (0.000000000e+00 0.000000000e+00 0.000000000e+00) (0.000000000e+00 0.000000000e+00 0.000000000e+00))
0.0002125       	((-1.199396138e-10 1.127318683e-08 2.269666766e-08) (0.000000000e+00 0.000000000e+00 0.000000000e+00) (0.000000000e+00 0.000000000e+00 0.000000000e+00)) ((1.455363607e-13 1.315336728e-13 1.275923811e-13) (0.000000000e+00 0.000000000e+00 0.000000000e+00) (0.000000000e+00 0.000000000e+00 0.000000000e+00))
0.000215        	((-1.200533006e-10 1.147759576e-08 2.310503078e-08) (0.000000000e+00 0.000000000e+00 0.000000000e+00) (0.000000000e+00 0.000000000e+00 0.000000000e+00)) ((1.464939281e-13 1.331712518e-13 1.273078865e-13) (0.000000000e+00 0.000000000e+00 0.000000000e+00) (0.000000000e+00 0.000000000e+00 0.000000000e+00))
0.0002175       	((-1.207354217e-10 1.167563823e-08 2.350680006e-08) (0.000000000e+00 0.000000000e+00 0.000000000e+00) (0.000000000e+00 0.000000000e+00 0.000000000e+00)) ((1.474653732e-13 1.335875854e-13 1.270164529e-13) (0.000000000e+00 0.000000000e+00 0.000000000e+00) (0.000000000e+00 0.000000000e+00 0.000000000e+00))
0.00022         	((-1.215312295e-10 1.187413545e-08 2.390311238e-08) (0.000000000e+00 0.000000000e+00 0.000000000e+00) (0.000000000e+00 0.000000000e+00 0.000000000e+00)) ((1.482286516e-13 1.354194534e-13 1.326022625e-13) (0.000000000e+00 0.000000000e+00 0.000000000e+00) (0.000000000e+00 0.000000000e+00 0.000000000e+00))
0.0002225       	((-1.225544111e-10 1.206967681e-08 2.429555934e-08) (0.000000000e+00 0.000000000e+00 0.000000000e+00) (0.000000000e+00 0.000000000e+00 0.000000000e+00)) ((1.506988978e-13 1.359745649e-13 1.333794186e-13) (0.000000000e+00 0.000000000e+00 0.000000000e+00) (0.000000000e+00 0.000000000e+00 0.000000000e+00))
0.000225        	((-1.230091584e-10 1.226339919e-08 2.468505045e-08) (0.000000000e+00 0.000000000e+00 0.000000000e+00) (0.000000000e+00 0.000000000e+00 0.000000000e+00)) ((1.524058657e-13 1.378619441e-13 1.326369570e-13) (0.000000000e+00 0.000000000e+00 0.000000000e+00) (0.000000000e+00 0.000000000e+00 0.000000000e+00))
0.0002275       	((-1.241460268e-10 1.245848580e-08 2.507022145e-08) (0.000000000e+00 0.000000000e+00 0.000000000e+00) (0.000000000e+00 0.000000000e+00 0.000000000e+00)) ((1.515454429e-13 1.393329896e-13 1.363978375e-13) (0.000000000e+00 0.000000000e+00 0.000000000e+00) (0.000000000e+00 0.000000000e+00 0.000000000e+00))
0.00023         	((-1.243734005e-10 1.264561433e-08 2.544879862e-08) (0.000000000e+00 0.000000000e+00 0.000000000e+00) (0.000000000e+00 0.000000000e+00 0.000000000e+00)) ((1.539046668e-13 1.417477247e-13 1.303332442e-13) (0.000000000e+00 0.000000000e+00 0.000000000e+00) (0.000000000e+00 0.000000000e+00 0.000000000e+00))